# vtk DataFile Version 2.0
VTK from Cpp
ASCII
DATASET STRUCTURED_GRID
DIMENSIONS 21 21 21
POINTS 9261 float
0 0 0
0.05 0 0
0.1 0 0
0.15 0 0
0.2 0 0
0.25 0 0
0.3 0 0
0.35 0 0
0.4 0 0
0.45 0 0
0.5 0 0
0.55 0 0
0.6 0 0
0.65 0 0
0.7 0 0
0.75 0 0
0.8 0 0
0.85 0 0
0.9 0 0
0.95 0 0
1 0 0
0 0.05 0
0.05 0.05 0
0.1 0.05 0
0.15 0.05 0
0.2 0.05 0
0.25 0.05 0
0.3 0.05 0
0.35 0.05 0
0.4 0.05 0
0.45 0.05 0
0.5 0.05 0
0.55 0.05 0
0.6 0.05 0
0.65 0.05 0
0.7 0.05 0
0.75 0.05 0
0.8 0.05 0
0.85 0.05 0
0.9 0.05 0
0.95 0.05 0
1 0.05 0
0 0.1 0
0.05 0.1 0
0.1 0.1 0
0.15 0.1 0
0.2 0.1 0
0.25 0.1 0
0.3 0.1 0
0.35 0.1 0
0.4 0.1 0
0.45 0.1 0
0.5 0.1 0
0.55 0.1 0
0.6 0.1 0
0.65 0.1 0
0.7 0.1 0
0.75 0.1 0
0.8 0.1 0
0.85 0.1 0
0.9 0.1 0
0.95 0.1 0
1 0.1 0
0 0.15 0
0.05 0.15 0
0.1 0.15 0
0.15 0.15 0
0.2 0.15 0
0.25 0.15 0
0.3 0.15 0
0.35 0.15 0
0.4 0.15 0
0.45 0.15 0
0.5 0.15 0
0.55 0.15 0
0.6 0.15 0
0.65 0.15 0
0.7 0.15 0
0.75 0.15 0
0.8 0.15 0
0.85 0.15 0
0.9 0.15 0
0.95 0.15 0
1 0.15 0
0 0.2 0
0.05 0.2 0
0.1 0.2 0
0.15 0.2 0
0.2 0.2 0
0.25 0.2 0
0.3 0.2 0
0.35 0.2 0
0.4 0.2 0
0.45 0.2 0
0.5 0.2 0
0.55 0.2 0
0.6 0.2 0
0.65 0.2 0
0.7 0.2 0
0.75 0.2 0
0.8 0.2 0
0.85 0.2 0
0.9 0.2 0
0.95 0.2 0
1 0.2 0
0 0.25 0
0.05 0.25 0
0.1 0.25 0
0.15 0.25 0
0.2 0.25 0
0.25 0.25 0
0.3 0.25 0
0.35 0.25 0
0.4 0.25 0
0.45 0.25 0
0.5 0.25 0
0.55 0.25 0
0.6 0.25 0
0.65 0.25 0
0.7 0.25 0
0.75 0.25 0
0.8 0.25 0
0.85 0.25 0
0.9 0.25 0
0.95 0.25 0
1 0.25 0
0 0.3 0
0.05 0.3 0
0.1 0.3 0
0.15 0.3 0
0.2 0.3 0
0.25 0.3 0
0.3 0.3 0
0.35 0.3 0
0.4 0.3 0
0.45 0.3 0
0.5 0.3 0
0.55 0.3 0
0.6 0.3 0
0.65 0.3 0
0.7 0.3 0
0.75 0.3 0
0.8 0.3 0
0.85 0.3 0
0.9 0.3 0
0.95 0.3 0
1 0.3 0
0 0.35 0
0.05 0.35 0
0.1 0.35 0
0.15 0.35 0
0.2 0.35 0
0.25 0.35 0
0.3 0.35 0
0.35 0.35 0
0.4 0.35 0
0.45 0.35 0
0.5 0.35 0
0.55 0.35 0
0.6 0.35 0
0.65 0.35 0
0.7 0.35 0
0.75 0.35 0
0.8 0.35 0
0.85 0.35 0
0.9 0.35 0
0.95 0.35 0
1 0.35 0
0 0.4 0
0.05 0.4 0
0.1 0.4 0
0.15 0.4 0
0.2 0.4 0
0.25 0.4 0
0.3 0.4 0
0.35 0.4 0
0.4 0.4 0
0.45 0.4 0
0.5 0.4 0
0.55 0.4 0
0.6 0.4 0
0.65 0.4 0
0.7 0.4 0
0.75 0.4 0
0.8 0.4 0
0.85 0.4 0
0.9 0.4 0
0.95 0.4 0
1 0.4 0
0 0.45 0
0.05 0.45 0
0.1 0.45 0
0.15 0.45 0
0.2 0.45 0
0.25 0.45 0
0.3 0.45 0
0.35 0.45 0
0.4 0.45 0
0.45 0.45 0
0.5 0.45 0
0.55 0.45 0
0.6 0.45 0
0.65 0.45 0
0.7 0.45 0
0.75 0.45 0
0.8 0.45 0
0.85 0.45 0
0.9 0.45 0
0.95 0.45 0
1 0.45 0
0 0.5 0
0.05 0.5 0
0.1 0.5 0
0.15 0.5 0
0.2 0.5 0
0.25 0.5 0
0.3 0.5 0
0.35 0.5 0
0.4 0.5 0
0.45 0.5 0
0.5 0.5 0
0.55 0.5 0
0.6 0.5 0
0.65 0.5 0
0.7 0.5 0
0.75 0.5 0
0.8 0.5 0
0.85 0.5 0
0.9 0.5 0
0.95 0.5 0
1 0.5 0
0 0.55 0
0.05 0.55 0
0.1 0.55 0
0.15 0.55 0
0.2 0.55 0
0.25 0.55 0
0.3 0.55 0
0.35 0.55 0
0.4 0.55 0
0.45 0.55 0
0.5 0.55 0
0.55 0.55 0
0.6 0.55 0
0.65 0.55 0
0.7 0.55 0
0.75 0.55 0
0.8 0.55 0
0.85 0.55 0
0.9 0.55 0
0.95 0.55 0
1 0.55 0
0 0.6 0
0.05 0.6 0
0.1 0.6 0
0.15 0.6 0
0.2 0.6 0
0.25 0.6 0
0.3 0.6 0
0.35 0.6 0
0.4 0.6 0
0.45 0.6 0
0.5 0.6 0
0.55 0.6 0
0.6 0.6 0
0.65 0.6 0
0.7 0.6 0
0.75 0.6 0
0.8 0.6 0
0.85 0.6 0
0.9 0.6 0
0.95 0.6 0
1 0.6 0
0 0.65 0
0.05 0.65 0
0.1 0.65 0
0.15 0.65 0
0.2 0.65 0
0.25 0.65 0
0.3 0.65 0
0.35 0.65 0
0.4 0.65 0
0.45 0.65 0
0.5 0.65 0
0.55 0.65 0
0.6 0.65 0
0.65 0.65 0
0.7 0.65 0
0.75 0.65 0
0.8 0.65 0
0.85 0.65 0
0.9 0.65 0
0.95 0.65 0
1 0.65 0
0 0.7 0
0.05 0.7 0
0.1 0.7 0
0.15 0.7 0
0.2 0.7 0
0.25 0.7 0
0.3 0.7 0
0.35 0.7 0
0.4 0.7 0
0.45 0.7 0
0.5 0.7 0
0.55 0.7 0
0.6 0.7 0
0.65 0.7 0
0.7 0.7 0
0.75 0.7 0
0.8 0.7 0
0.85 0.7 0
0.9 0.7 0
0.95 0.7 0
1 0.7 0
0 0.75 0
0.05 0.75 0
0.1 0.75 0
0.15 0.75 0
0.2 0.75 0
0.25 0.75 0
0.3 0.75 0
0.35 0.75 0
0.4 0.75 0
0.45 0.75 0
0.5 0.75 0
0.55 0.75 0
0.6 0.75 0
0.65 0.75 0
0.7 0.75 0
0.75 0.75 0
0.8 0.75 0
0.85 0.75 0
0.9 0.75 0
0.95 0.75 0
1 0.75 0
0 0.8 0
0.05 0.8 0
0.1 0.8 0
0.15 0.8 0
0.2 0.8 0
0.25 0.8 0
0.3 0.8 0
0.35 0.8 0
0.4 0.8 0
0.45 0.8 0
0.5 0.8 0
0.55 0.8 0
0.6 0.8 0
0.65 0.8 0
0.7 0.8 0
0.75 0.8 0
0.8 0.8 0
0.85 0.8 0
0.9 0.8 0
0.95 0.8 0
1 0.8 0
0 0.85 0
0.05 0.85 0
0.1 0.85 0
0.15 0.85 0
0.2 0.85 0
0.25 0.85 0
0.3 0.85 0
0.35 0.85 0
0.4 0.85 0
0.45 0.85 0
0.5 0.85 0
0.55 0.85 0
0.6 0.85 0
0.65 0.85 0
0.7 0.85 0
0.75 0.85 0
0.8 0.85 0
0.85 0.85 0
0.9 0.85 0
0.95 0.85 0
1 0.85 0
0 0.9 0
0.05 0.9 0
0.1 0.9 0
0.15 0.9 0
0.2 0.9 0
0.25 0.9 0
0.3 0.9 0
0.35 0.9 0
0.4 0.9 0
0.45 0.9 0
0.5 0.9 0
0.55 0.9 0
0.6 0.9 0
0.65 0.9 0
0.7 0.9 0
0.75 0.9 0
0.8 0.9 0
0.85 0.9 0
0.9 0.9 0
0.95 0.9 0
1 0.9 0
0 0.95 0
0.05 0.95 0
0.1 0.95 0
0.15 0.95 0
0.2 0.95 0
0.25 0.95 0
0.3 0.95 0
0.35 0.95 0
0.4 0.95 0
0.45 0.95 0
0.5 0.95 0
0.55 0.95 0
0.6 0.95 0
0.65 0.95 0
0.7 0.95 0
0.75 0.95 0
0.8 0.95 0
0.85 0.95 0
0.9 0.95 0
0.95 0.95 0
1 0.95 0
0 1 0
0.05 1 0
0.1 1 0
0.15 1 0
0.2 1 0
0.25 1 0
0.3 1 0
0.35 1 0
0.4 1 0
0.45 1 0
0.5 1 0
0.55 1 0
0.6 1 0
0.65 1 0
0.7 1 0
0.75 1 0
0.8 1 0
0.85 1 0
0.9 1 0
0.95 1 0
1 1 0
0 0 0.05
0.05 0 0.05
0.1 0 0.05
0.15 0 0.05
0.2 0 0.05
0.25 0 0.05
0.3 0 0.05
0.35 0 0.05
0.4 0 0.05
0.45 0 0.05
0.5 0 0.05
0.55 0 0.05
0.6 0 0.05
0.65 0 0.05
0.7 0 0.05
0.75 0 0.05
0.8 0 0.05
0.85 0 0.05
0.9 0 0.05
0.95 0 0.05
1 0 0.05
0 0.05 0.05
0.05 0.05 0.05
0.1 0.05 0.05
0.15 0.05 0.05
0.2 0.05 0.05
0.25 0.05 0.05
0.3 0.05 0.05
0.35 0.05 0.05
0.4 0.05 0.05
0.45 0.05 0.05
0.5 0.05 0.05
0.55 0.05 0.05
0.6 0.05 0.05
0.65 0.05 0.05
0.7 0.05 0.05
0.75 0.05 0.05
0.8 0.05 0.05
0.85 0.05 0.05
0.9 0.05 0.05
0.95 0.05 0.05
1 0.05 0.05
0 0.1 0.05
0.05 0.1 0.05
0.1 0.1 0.05
0.15 0.1 0.05
0.2 0.1 0.05
0.25 0.1 0.05
0.3 0.1 0.05
0.35 0.1 0.05
0.4 0.1 0.05
0.45 0.1 0.05
0.5 0.1 0.05
0.55 0.1 0.05
0.6 0.1 0.05
0.65 0.1 0.05
0.7 0.1 0.05
0.75 0.1 0.05
0.8 0.1 0.05
0.85 0.1 0.05
0.9 0.1 0.05
0.95 0.1 0.05
1 0.1 0.05
0 0.15 0.05
0.05 0.15 0.05
0.1 0.15 0.05
0.15 0.15 0.05
0.2 0.15 0.05
0.25 0.15 0.05
0.3 0.15 0.05
0.35 0.15 0.05
0.4 0.15 0.05
0.45 0.15 0.05
0.5 0.15 0.05
0.55 0.15 0.05
0.6 0.15 0.05
0.65 0.15 0.05
0.7 0.15 0.05
0.75 0.15 0.05
0.8 0.15 0.05
0.85 0.15 0.05
0.9 0.15 0.05
0.95 0.15 0.05
1 0.15 0.05
0 0.2 0.05
0.05 0.2 0.05
0.1 0.2 0.05
0.15 0.2 0.05
0.2 0.2 0.05
0.25 0.2 0.05
0.3 0.2 0.05
0.35 0.2 0.05
0.4 0.2 0.05
0.45 0.2 0.05
0.5 0.2 0.05
0.55 0.2 0.05
0.6 0.2 0.05
0.65 0.2 0.05
0.7 0.2 0.05
0.75 0.2 0.05
0.8 0.2 0.05
0.85 0.2 0.05
0.9 0.2 0.05
0.95 0.2 0.05
1 0.2 0.05
0 0.25 0.05
0.05 0.25 0.05
0.1 0.25 0.05
0.15 0.25 0.05
0.2 0.25 0.05
0.25 0.25 0.05
0.3 0.25 0.05
0.35 0.25 0.05
0.4 0.25 0.05
0.45 0.25 0.05
0.5 0.25 0.05
0.55 0.25 0.05
0.6 0.25 0.05
0.65 0.25 0.05
0.7 0.25 0.05
0.75 0.25 0.05
0.8 0.25 0.05
0.85 0.25 0.05
0.9 0.25 0.05
0.95 0.25 0.05
1 0.25 0.05
0 0.3 0.05
0.05 0.3 0.05
0.1 0.3 0.05
0.15 0.3 0.05
0.2 0.3 0.05
0.25 0.3 0.05
0.3 0.3 0.05
0.35 0.3 0.05
0.4 0.3 0.05
0.45 0.3 0.05
0.5 0.3 0.05
0.55 0.3 0.05
0.6 0.3 0.05
0.65 0.3 0.05
0.7 0.3 0.05
0.75 0.3 0.05
0.8 0.3 0.05
0.85 0.3 0.05
0.9 0.3 0.05
0.95 0.3 0.05
1 0.3 0.05
0 0.35 0.05
0.05 0.35 0.05
0.1 0.35 0.05
0.15 0.35 0.05
0.2 0.35 0.05
0.25 0.35 0.05
0.3 0.35 0.05
0.35 0.35 0.05
0.4 0.35 0.05
0.45 0.35 0.05
0.5 0.35 0.05
0.55 0.35 0.05
0.6 0.35 0.05
0.65 0.35 0.05
0.7 0.35 0.05
0.75 0.35 0.05
0.8 0.35 0.05
0.85 0.35 0.05
0.9 0.35 0.05
0.95 0.35 0.05
1 0.35 0.05
0 0.4 0.05
0.05 0.4 0.05
0.1 0.4 0.05
0.15 0.4 0.05
0.2 0.4 0.05
0.25 0.4 0.05
0.3 0.4 0.05
0.35 0.4 0.05
0.4 0.4 0.05
0.45 0.4 0.05
0.5 0.4 0.05
0.55 0.4 0.05
0.6 0.4 0.05
0.65 0.4 0.05
0.7 0.4 0.05
0.75 0.4 0.05
0.8 0.4 0.05
0.85 0.4 0.05
0.9 0.4 0.05
0.95 0.4 0.05
1 0.4 0.05
0 0.45 0.05
0.05 0.45 0.05
0.1 0.45 0.05
0.15 0.45 0.05
0.2 0.45 0.05
0.25 0.45 0.05
0.3 0.45 0.05
0.35 0.45 0.05
0.4 0.45 0.05
0.45 0.45 0.05
0.5 0.45 0.05
0.55 0.45 0.05
0.6 0.45 0.05
0.65 0.45 0.05
0.7 0.45 0.05
0.75 0.45 0.05
0.8 0.45 0.05
0.85 0.45 0.05
0.9 0.45 0.05
0.95 0.45 0.05
1 0.45 0.05
0 0.5 0.05
0.05 0.5 0.05
0.1 0.5 0.05
0.15 0.5 0.05
0.2 0.5 0.05
0.25 0.5 0.05
0.3 0.5 0.05
0.35 0.5 0.05
0.4 0.5 0.05
0.45 0.5 0.05
0.5 0.5 0.05
0.55 0.5 0.05
0.6 0.5 0.05
0.65 0.5 0.05
0.7 0.5 0.05
0.75 0.5 0.05
0.8 0.5 0.05
0.85 0.5 0.05
0.9 0.5 0.05
0.95 0.5 0.05
1 0.5 0.05
0 0.55 0.05
0.05 0.55 0.05
0.1 0.55 0.05
0.15 0.55 0.05
0.2 0.55 0.05
0.25 0.55 0.05
0.3 0.55 0.05
0.35 0.55 0.05
0.4 0.55 0.05
0.45 0.55 0.05
0.5 0.55 0.05
0.55 0.55 0.05
0.6 0.55 0.05
0.65 0.55 0.05
0.7 0.55 0.05
0.75 0.55 0.05
0.8 0.55 0.05
0.85 0.55 0.05
0.9 0.55 0.05
0.95 0.55 0.05
1 0.55 0.05
0 0.6 0.05
0.05 0.6 0.05
0.1 0.6 0.05
0.15 0.6 0.05
0.2 0.6 0.05
0.25 0.6 0.05
0.3 0.6 0.05
0.35 0.6 0.05
0.4 0.6 0.05
0.45 0.6 0.05
0.5 0.6 0.05
0.55 0.6 0.05
0.6 0.6 0.05
0.65 0.6 0.05
0.7 0.6 0.05
0.75 0.6 0.05
0.8 0.6 0.05
0.85 0.6 0.05
0.9 0.6 0.05
0.95 0.6 0.05
1 0.6 0.05
0 0.65 0.05
0.05 0.65 0.05
0.1 0.65 0.05
0.15 0.65 0.05
0.2 0.65 0.05
0.25 0.65 0.05
0.3 0.65 0.05
0.35 0.65 0.05
0.4 0.65 0.05
0.45 0.65 0.05
0.5 0.65 0.05
0.55 0.65 0.05
0.6 0.65 0.05
0.65 0.65 0.05
0.7 0.65 0.05
0.75 0.65 0.05
0.8 0.65 0.05
0.85 0.65 0.05
0.9 0.65 0.05
0.95 0.65 0.05
1 0.65 0.05
0 0.7 0.05
0.05 0.7 0.05
0.1 0.7 0.05
0.15 0.7 0.05
0.2 0.7 0.05
0.25 0.7 0.05
0.3 0.7 0.05
0.35 0.7 0.05
0.4 0.7 0.05
0.45 0.7 0.05
0.5 0.7 0.05
0.55 0.7 0.05
0.6 0.7 0.05
0.65 0.7 0.05
0.7 0.7 0.05
0.75 0.7 0.05
0.8 0.7 0.05
0.85 0.7 0.05
0.9 0.7 0.05
0.95 0.7 0.05
1 0.7 0.05
0 0.75 0.05
0.05 0.75 0.05
0.1 0.75 0.05
0.15 0.75 0.05
0.2 0.75 0.05
0.25 0.75 0.05
0.3 0.75 0.05
0.35 0.75 0.05
0.4 0.75 0.05
0.45 0.75 0.05
0.5 0.75 0.05
0.55 0.75 0.05
0.6 0.75 0.05
0.65 0.75 0.05
0.7 0.75 0.05
0.75 0.75 0.05
0.8 0.75 0.05
0.85 0.75 0.05
0.9 0.75 0.05
0.95 0.75 0.05
1 0.75 0.05
0 0.8 0.05
0.05 0.8 0.05
0.1 0.8 0.05
0.15 0.8 0.05
0.2 0.8 0.05
0.25 0.8 0.05
0.3 0.8 0.05
0.35 0.8 0.05
0.4 0.8 0.05
0.45 0.8 0.05
0.5 0.8 0.05
0.55 0.8 0.05
0.6 0.8 0.05
0.65 0.8 0.05
0.7 0.8 0.05
0.75 0.8 0.05
0.8 0.8 0.05
0.85 0.8 0.05
0.9 0.8 0.05
0.95 0.8 0.05
1 0.8 0.05
0 0.85 0.05
0.05 0.85 0.05
0.1 0.85 0.05
0.15 0.85 0.05
0.2 0.85 0.05
0.25 0.85 0.05
0.3 0.85 0.05
0.35 0.85 0.05
0.4 0.85 0.05
0.45 0.85 0.05
0.5 0.85 0.05
0.55 0.85 0.05
0.6 0.85 0.05
0.65 0.85 0.05
0.7 0.85 0.05
0.75 0.85 0.05
0.8 0.85 0.05
0.85 0.85 0.05
0.9 0.85 0.05
0.95 0.85 0.05
1 0.85 0.05
0 0.9 0.05
0.05 0.9 0.05
0.1 0.9 0.05
0.15 0.9 0.05
[...]
POINT_DATA 9261
SCALARS Value float
LOOKUP_TABLE default
0
0
0
0
0
0
0
0
0
0
0
0
0
0
0
0
0
0
0
0
0
0
0
0
0
0
0
0
0
0
0
0
0
0
0
0
0
0
0
0
0
0
0
0
0
0
0
0
0
0
0
0
0
0
0
0
0
0
0
0
0
0
0
0
0
0
0
0
0
0
0
0
0
0
0
0
0
0
0
0
0
0
0
0
0
0
0
0
0
0
0
0
0
0
0
0
0
0
0
0
0
0
0
0
0
0
0
0
0
0
0
0
0
0
0
0
0
0
0
0
0
0
0
0
0
0
0
0
0
0
0
0
0
0
0
0
0
0
0
0
0
0
0
0
0
0
0
0
0
0
0
0
0
0
0
0
0
0
0
0
0
0
0
0
0
0
0
0
0
0
0
0
0
0
0
0
0
0
0
0
0
0
0
0
0
0
0
0
0
0
0
0
0
0
0
0
0
0
0
0
0
0
0
0
0
0
0
0
0
0
0
0
0
0
0
0
0
0
0
0
0
0
0
0
0
0
0
0
0
0
0
0
0
0
0
0
0
0
0
0
0
0
0
0
0
0
0
0
0
0
0
0
0
0
0
0
0
0
0
0
0
0
0
0
0
0
0
0
0
0
0
0
0
0
0
0
0
0
0
0
0
0
0
0
0
0
0
0
0
0
0
0
0
0
0
0
0
0
0
0
0
0
0
0
0
0
0
0
0
0
0
0
0
0
0
0
0
0
0
0
0
0
0
0
0
0
0
0
0
0
0
0
0
0
0
0
0
0
0
0
0
0
0
0
0
0
0
0
0
0
0
0
0
0
0
0
0
0
0
0
0
0
0
0
0
0
0
0
0
0
0
0
0
0
0
0
0
0
0
0
0
0
0
0
0
0
0
0
0
0
0
0
0
0
0
0
0
0
0
0
0
0
0
0
0
0
0
0
0
0
0
0
0
0
0
0
0
0
0
0
0
0
0
0
0
0
0
0
0
0
0
0
0
0
0
0
0
0
0
0
0
0
0
0
0
0
0
0
0
0
0
0
0
0
0
0
0
0
0
0
0
0
0
0.0149
0.0283072
0.0389328
0.0457434
0.0480748
0.0456996
0.0388508
0.028199
0.0147868
-7.27916e-05
-0.0149252
-0.0283166
-0.0389362
-0.0457445
-0.0480752
-0.0457007
-0.0388542
-0.0282083
-0.014812
-1.18401e-17
0
0.0283072
0.0538075
0.0740269
0.0869945
0.0914441
0.0869417
0.0739284
0.0536785
0.0281741
-8.80133e-05
-0.0283414
-0.0538205
-0.0740313
-0.0869954
-0.0914441
-0.0869426
-0.0739328
-0.0536915
-0.0282083
-2.25212e-17
0
0.0389328
0.0740269
0.101863
0.119724
0.125863
0.119681
0.101784
0.0739232
0.0388266
-7.0479e-05
-0.0389604
-0.0740365
-0.101865
-0.119723
-0.125861
-0.11968
-0.101786
-0.0739328
-0.0388542
-3.09978e-17
0
0.0457434
0.0869945
0.119724
0.140732
0.147963
0.14071
0.119684
0.0869423
0.0456907
-3.31229e-05
-0.0457534
-0.0869947
-0.11972
-0.140726
-0.147957
-0.140705
-0.11968
-0.0869426
-0.0457007
-3.64401e-17
0
0.0480748
0.0914441
0.125863
0.147963
0.155579
0.147968
0.125873
0.0914571
0.0480894
1.49126e-05
-0.0480606
-0.0914312
-0.125851
-0.147952
-0.155569
-0.147957
-0.125861
-0.0914441
-0.0480752
-3.83154e-17
0
0.0456996
0.0869417
0.119681
0.14071
0.147968
0.140743
0.119743
0.0870231
0.0457851
6.59938e-05
-0.045659
-0.0869139
-0.11966
-0.140693
-0.147952
-0.140726
-0.119723
-0.0869954
-0.0457445
-3.64401e-17
0
0.0388508
0.0739284
0.101784
0.119684
0.125873
0.119743
0.101895
0.0740732
0.0390018
0.000113468
-0.0387852
-0.0738865
-0.101754
-0.11966
-0.125851
-0.11972
-0.101865
-0.0740313
-0.0389362
-3.09978e-17
0
0.028199
0.0536785
0.0739232
0.0869423
0.0914571
0.0870231
0.0740732
0.053874
0.0284025
0.000151733
-0.028113
-0.053625
-0.0738865
-0.0869139
-0.0914312
-0.0869947
-0.0740365
-0.0538205
-0.0283166
-2.25212e-17
0
0.0147868
0.0281741
0.0388266
0.0456907
0.0480894
0.0457851
0.0390018
0.0284025
0.0150243
0.0001765
-0.0146877
-0.028113
-0.0387852
-0.045659
-0.0480606
-0.0457534
-0.0389604
-0.0283414
-0.0149252
-1.18401e-17
0
-7.27916e-05
-8.80133e-05
-7.0479e-05
-3.31229e-05
1.49126e-05
6.59938e-05
0.000113468
0.000151733
0.0001765
0.000185064
0.0001765
0.000151733
0.000113468
6.59938e-05
1.49126e-05
-3.31229e-05
-7.0479e-05
-8.80133e-05
-7.27916e-05
-4.69228e-33
0
-0.0149252
-0.0283414
-0.0389604
-0.0457534
-0.0480606
-0.045659
-0.0387852
-0.028113
-0.0146877
0.0001765
0.0150243
0.0284025
0.0390018
0.0457851
0.0480894
0.0456907
0.0388266
0.0281741
0.0147868
1.18401e-17
0
-0.0283166
-0.0538205
-0.0740365
-0.0869947
-0.0914312
-0.0869139
-0.0738865
-0.053625
-0.028113
0.000151733
0.0284025
0.053874
0.0740732
0.0870231
0.0914571
0.0869423
0.0739232
0.0536785
0.028199
2.25212e-17
0
-0.0389362
-0.0740313
-0.101865
-0.11972
-0.125851
-0.11966
-0.101754
-0.0738865
-0.0387852
0.000113468
0.0390018
0.0740732
0.101895
0.119743
0.125873
0.119684
0.101784
0.0739284
0.0388508
3.09978e-17
0
-0.0457445
-0.0869954
-0.119723
-0.140726
-0.147952
-0.140693
-0.11966
-0.0869139
-0.045659
6.59938e-05
0.0457851
0.0870231
0.119743
0.140743
0.147968
0.14071
0.119681
0.0869417
0.0456996
3.64401e-17
0
-0.0480752
-0.0914441
-0.125861
-0.147957
-0.155569
-0.147952
-0.125851
-0.0914312
-0.0480606
1.49126e-05
0.0480894
0.0914571
0.125873
0.147968
0.155579
0.147963
0.125863
0.0914441
0.0480748
3.83154e-17
0
-0.0457007
-0.0869426
-0.11968
-0.140705
-0.147957
-0.140726
-0.11972
-0.0869947
-0.0457534
-3.31229e-05
0.0456907
0.0869423
0.119684
0.14071
0.147963
0.140732
0.119724
0.0869945
0.0457434
3.64401e-17
0
-0.0388542
-0.0739328
-0.101786
-0.11968
-0.125861
-0.119723
-0.101865
-0.0740365
-0.0389604
-7.0479e-05
0.0388266
0.0739232
0.101784
0.119681
0.125863
0.119724
0.101863
0.0740269
0.0389328
3.09978e-17
0
-0.0282083
-0.0536915
-0.0739328
-0.0869426
-0.0914441
-0.0869954
-0.0740313
-0.0538205
-0.0283414
-8.80133e-05
0.0281741
0.0536785
0.0739284
0.0869417
0.0914441
0.0869945
0.0740269
0.0538075
0.0283072
2.25212e-17
0
-0.014812
-0.0282083
-0.0388542
-0.0457007
-0.0480752
-0.0457445
-0.0389362
-0.0283166
-0.0149252
-7.27916e-05
0.0147868
0.028199
0.0388508
0.0456996
0.0480748
0.0457434
0.0389328
0.0283072
0.0149
1.18401e-17
0
-1.18401e-17
-2.25212e-17
-3.09978e-17
-3.64401e-17
-3.83154e-17
-3.64401e-17
-3.09978e-17
-2.25212e-17
-1.18401e-17
-4.69228e-33
1.18401e-17
2.25212e-17
3.09978e-17
3.64401e-17
3.83154e-17
3.64401e-17
3.09978e-17
2.25212e-17
1.18401e-17
9.38456e-33
0
0
0
0
0
0
0
0
0
0
0
0
0
0
0
0
0
0
0
0
0
0
0.0294016
0.0558846
0.0768818
0.0903471
0.0949659
0.0902877
0.0767711
0.0557395
0.0292517
-9.94289e-05
-0.0294407
-0.0559001
-0.0768876
-0.0903489
-0.0949666
-0.0902895
-0.0767768
-0.0557549
-0.0292908
-2.33887e-17
0
0.0558846
0.106255
0.146204
0.171832
0.180637
0.171758
0.146065
0.106075
0.0557012
-0.000124756
-0.0559383
-0.106276
-0.146211
-0.171833
-0.180636
-0.171759
-0.146073
-0.106096
-0.0557549
-4.44879e-17
0
0.0768818
0.146204
0.201197
0.236488
0.248627
0.236427
0.201084
0.146057
0.0767336
-0.000100804
-0.076925
-0.146219
-0.2012
-0.236486
-0.248623
-0.236424
-0.201087
-0.146073
-0.0767768
-6.12323e-17
0
0.0903471
0.171832
0.236488
0.277991
0.292282
0.277961
0.236432
0.17176
0.0902755
-4.52456e-05
-0.090361
-0.171831
-0.236481
-0.277981
-0.292271
-0.277951
-0.236424
-0.171759
-0.0902895
-7.19829e-17
0
0.0949659
0.180637
0.248627
0.292282
0.307327
0.292291
0.248645
0.180661
0.0949932
2.7862e-05
-0.0949394
-0.180612
-0.248605
-0.292261
-0.307307
-0.292271
-0.248623
-0.180636
-0.0949666
-7.56873e-17
0
0.0902877
0.171758
0.236427
0.277961
0.292291
0.278013
0.236524
0.171884
0.0904201
0.000106407
-0.0902165
-0.171707
-0.236389
-0.277929
-0.292261
-0.277981
-0.236486
-0.171833
-0.0903489
-7.19829e-17
0
0.0767711
0.146065
0.201084
0.236432
0.248645
0.236524
0.201254
0.146286
0.077001
0.00017979
-0.0766576
-0.14599
-0.20103
-0.236389
-0.248605
-0.236481
-0.2012
-0.146211
-0.0768876
-6.12323e-17
0
0.0557395
0.106075
0.146057
0.17176
0.180661
0.171884
0.146286
0.106372
0.056048
0.000239108
-0.0555915
-0.105979
-0.14599
-0.171707
-0.180612
-0.171831
-0.146219
-0.106276
-0.0559001
-4.44879e-17
0
0.0292517
0.0557012
0.0767336
0.0902755
0.0949932
0.0904201
0.077001
0.056048
0.0296111
0.000277559
-0.0290813
-0.0555915
-0.0766576
-0.0902165
-0.0949394
-0.090361
-0.076925
-0.0559383
-0.0294407
-2.33887e-17
0
-9.94289e-05
-0.000124756
-0.000100804
-4.52456e-05
2.7862e-05
0.000106407
0.00017979
0.000239108
0.000277559
0.000290864
0.000277559
0.000239108
0.00017979
0.000106407
2.7862e-05
-4.52456e-05
-0.000100804
-0.000124756
-9.94289e-05
-9.26903e-33
0
-0.0294407
-0.0559383
-0.076925
-0.090361
-0.0949394
-0.0902165
-0.0766576
-0.0555915
-0.0290813
0.000277559
0.0296111
0.056048
0.077001
0.0904201
0.0949932
0.0902755
0.0767336
0.0557012
0.0292517
2.33887e-17
0
-0.0559001
-0.106276
-0.146219
-0.171831
-0.180612
-0.171707
-0.14599
-0.105979
-0.0555915
0.000239108
0.056048
0.106372
0.146286
0.171884
0.180661
0.17176
0.146057
0.106075
0.0557395
4.44879e-17
0
-0.0768876
-0.146211
-0.2012
-0.236481
-0.248605
-0.236389
-0.20103
-0.14599
-0.0766576
0.00017979
0.077001
0.146286
0.201254
0.236524
0.248645
0.236432
0.201084
0.146065
0.0767711
6.12323e-17
0
-0.0903489
-0.171833
-0.236486
-0.277981
-0.292261
-0.277929
-0.236389
-0.171707
-0.0902165
0.000106407
0.0904201
0.171884
0.236524
0.278013
0.292291
0.277961
0.236427
0.171758
0.0902877
7.19829e-17
0
-0.0949666
-0.180636
-0.248623
-0.292271
-0.307307
-0.292261
-0.248605
-0.180612
-0.0949394
2.7862e-05
0.0949932
0.180661
0.248645
0.292291
0.307327
0.292282
0.248627
0.180637
0.0949659
7.56873e-17
0
-0.0902895
-0.171759
-0.236424
-0.277951
-0.292271
-0.277981
-0.236481
-0.171831
-0.090361
-4.52456e-05
0.0902755
0.17176
0.236432
0.277961
0.292282
0.277991
0.236488
0.171832
0.0903471
7.19829e-17
0
-0.0767768
-0.146073
-0.201087
-0.236424
-0.248623
-0.236486
-0.2012
-0.146219
-0.076925
-0.000100804
0.0767336
0.146057
0.201084
0.236427
0.248627
0.236488
0.201197
0.146204
0.0768818
6.12323e-17
0
-0.0557549
-0.106096
-0.146073
-0.171759
-0.180636
-0.171833
-0.146211
-0.106276
-0.0559383
-0.000124756
0.0557012
0.106075
0.146065
0.171758
0.180637
0.171832
0.146204
0.106255
0.0558846
4.44879e-17
0
-0.0292908
-0.0557549
-0.0767768
-0.0902895
-0.0949666
-0.0903489
-0.0768876
-0.0559001
-0.0294407
-9.94289e-05
0.0292517
0.0557395
0.0767711
0.0902877
0.0949659
0.0903471
0.0768818
0.0558846
0.0294016
2.33887e-17
0
-2.33887e-17
-4.44879e-17
-6.12323e-17
-7.19829e-17
-7.56873e-17
-7.19829e-17
-6.12323e-17
-4.44879e-17
-2.33887e-17
-9.26903e-33
2.33887e-17
4.44879e-17
6.12323e-17
7.19829e-17
7.56873e-17
7.19829e-17
6.12323e-17
4.44879e-17
2.33887e-17
1.85381e-32
0
0
0
0
0
0
0
0
0
0
0
0
0
0
0
0
0
0
0
0
0
0
0.04317
0.0820743
0.112928
0.132721
0.139519
0.132658
0.112812
0.0819222
0.0430136
-0.000105348
-0.0432139
-0.0820923
-0.112935
-0.132723
-0.139519
-0.13266
-0.112818
-0.0819403
-0.0430576
-3.43613e-17
0
0.0820743
0.15607
0.214768
0.252432
0.265382
0.252352
0.21462
0.155879
0.0818797
-0.000134294
-0.0821349
-0.156095
-0.214776
-0.252433
-0.265381
-0.252353
-0.214628
-0.155904
-0.0819403
-6.53591e-17
0
0.112928
0.214768
0.295566
0.347424
0.365269
0.347358
0.295444
0.214611
0.11277
-0.000108489
-0.112976
-0.214785
-0.295568
-0.347419
-0.365263
-0.347353
-0.295447
-0.214628
-0.112818
-8.99591e-17
0
0.132721
0.252432
0.347424
0.408403
0.429403
0.408371
0.347365
0.252357
0.132647
-4.60259e-05
-0.132734
-0.252428
-0.347412
-0.408388
-0.429388
-0.408356
-0.347353
-0.252353
-0.13266
-1.05753e-16
0
0.139519
0.265382
0.365269
0.429403
0.451507
0.429416
0.365293
0.265414
0.139555
3.7364e-05
-0.139483
-0.265349
-0.365239
-0.429375
-0.45148
-0.429388
-0.365263
-0.265381
-0.139519
-1.11196e-16
0
0.132658
0.252352
0.347358
0.408371
0.429416
0.408432
0.347471
0.252499
0.132813
0.000127619
-0.132568
-0.252286
-0.347306
-0.408327
-0.429375
-0.408388
-0.347419
-0.252433
-0.132723
-1.05753e-16
0
0.112812
0.21462
0.295444
0.347365
0.365293
0.347471
0.29564
0.214874
0.113076
0.000212293
-0.11267
-0.214522
-0.295373
-0.347306
-0.365239
-0.347412
-0.295568
-0.214776
-0.112935
-8.99591e-17
0
0.0819222
0.155879
0.214611
0.252357
0.265414
0.252499
0.214874
0.156219
0.0822756
0.000280899
-0.081739
-0.155755
-0.214522
-0.252286
-0.265349
-0.252428
-0.214785
-0.156095
-0.0820923
-6.53591e-17
0
0.0430136
0.0818797
0.11277
0.132647
0.139555
0.132813
0.113076
0.0822756
0.0434245
0.000325429
-0.0428031
-0.081739
-0.11267
-0.132568
-0.139483
-0.132734
-0.112976
-0.0821349
-0.0432139
-3.43613e-17
0
-0.000105348
-0.000134294
-0.000108489
-4.60259e-05
3.7364e-05
0.000127619
0.000212293
0.000280899
0.000325429
0.000340846
0.000325429
0.000280899
0.000212293
0.000127619
3.7364e-05
-4.60259e-05
-0.000108489
-0.000134294
-0.000105348
-1.36175e-32
0
-0.0432139
-0.0821349
-0.112976
-0.132734
-0.139483
-0.132568
-0.11267
-0.081739
-0.0428031
0.000325429
0.0434245
0.0822756
0.113076
0.132813
0.139555
0.132647
0.11277
0.0818797
0.0430136
3.43613e-17
0
-0.0820923
-0.156095
-0.214785
-0.252428
-0.265349
-0.252286
-0.214522
-0.155755
-0.081739
0.000280899
0.0822756
0.156219
0.214874
0.252499
0.265414
0.252357
0.214611
0.155879
0.0819222
6.53591e-17
0
-0.112935
-0.214776
-0.295568
-0.347412
-0.365239
-0.347306
-0.295373
-0.214522
-0.11267
0.000212293
0.113076
0.214874
0.29564
0.347471
0.365293
0.347365
0.295444
0.21462
0.112812
8.99591e-17
0
-0.132723
-0.252433
-0.347419
-0.408388
-0.429375
-0.408327
-0.347306
-0.252286
-0.132568
0.000127619
0.132813
0.252499
0.347471
0.408432
0.429416
0.408371
0.347358
0.252352
0.132658
1.05753e-16
0
-0.139519
-0.265381
-0.365263
-0.429388
-0.45148
-0.429375
-0.365239
-0.265349
-0.139483
3.7364e-05
0.139555
0.265414
0.365293
0.429416
0.451507
0.429403
0.365269
0.265382
0.139519
1.11196e-16
0
-0.13266
-0.252353
-0.347353
-0.408356
-0.429388
-0.408388
-0.347412
-0.252428
-0.132734
-4.60259e-05
0.132647
0.252357
0.347365
0.408371
0.429403
0.408403
0.347424
0.252432
0.132721
1.05753e-16
0
-0.112818
-0.214628
-0.295447
-0.347353
-0.365263
-0.347419
-0.295568
-0.214785
-0.112976
-0.000108489
0.11277
0.214611
0.295444
0.347358
0.365269
0.347424
0.295566
0.214768
0.112928
8.99591e-17
0
-0.0819403
-0.155904
-0.214628
-0.252353
-0.265381
-0.252433
-0.214776
-0.156095
-0.0821349
-0.000134294
0.0818797
0.155879
0.21462
0.252352
0.265382
0.252432
0.214768
0.15607
0.0820743
6.53591e-17
0
-0.0430576
-0.0819403
-0.112818
-0.13266
-0.139519
-0.132723
-0.112935
-0.0820923
-0.0432139
-0.000105348
0.0430136
0.0819222
0.112812
0.132658
0.139519
0.132721
0.112928
0.0820743
0.04317
3.43613e-17
0
-3.43613e-17
-6.53591e-17
-8.99591e-17
-1.05753e-16
-1.11196e-16
-1.05753e-16
-8.99591e-17
-6.53591e-17
-3.43613e-17
-1.36175e-32
3.43613e-17
6.53591e-17
8.99591e-17
1.05753e-16
1.11196e-16
1.05753e-16
8.99591e-17
6.53591e-17
3.43613e-17
2.72351e-32
0
0
0
0
0
0
0
0
0
0
0
0
0
0
0
0
0
0
0
0
0
0
0.0558724
0.106239
0.14619
0.171825
0.180636
0.171765
0.146079
0.106094
0.0557241
-0.000100652
-0.0559154
-0.106257
-0.146197
-0.171826
-0.180637
-0.171767
-0.146086
-0.106112
-0.0557672
-4.44879e-17
0
0.106239
0.202037
0.278038
0.326813
0.343592
0.326736
0.277896
0.201854
0.106053
-0.000129057
-0.106298
-0.202062
-0.278046
-0.326813
-0.34359
-0.326737
-0.277904
-0.201879
-0.106112
-8.4621e-17
0
0.14619
0.278038
0.382652
0.449801
0.472917
0.449738
0.382536
0.277888
0.14604
-0.000103688
-0.146236
-0.278054
-0.382653
-0.449795
-0.472909
-0.449732
-0.382537
-0.277904
-0.146086
-1.16471e-16
0
0.171825
0.326813
0.449801
0.528756
0.555951
0.528726
0.449746
0.326743
0.171757
-4.13163e-05
-0.171834
-0.326806
-0.449787
-0.528739
-0.555933
-0.528709
-0.449732
-0.326737
-0.171767
-1.3692e-16
0
0.180636
0.343592
0.472917
0.555951
0.584568
0.555966
0.472944
0.343628
0.180678
4.26178e-05
-0.180595
-0.343554
-0.472882
-0.555919
-0.584536
-0.555933
-0.472909
-0.34359
-0.180637
-1.43966e-16
0
0.171765
0.326736
0.449738
0.528726
0.555966
0.528789
0.449854
0.326887
0.171924
0.000133902
-0.171667
-0.326663
-0.44968
-0.528676
-0.555919
-0.528739
-0.449795
-0.326813
-0.171826
-1.3692e-16
0
0.146079
0.277896
0.382536
0.449746
0.472944
0.449854
0.382734
0.278153
0.146348
0.000219796
-0.145928
-0.277789
-0.382455
-0.44968
-0.472882
-0.449787
-0.382653
-0.278046
-0.146197
-1.16471e-16
0
0.106094
0.201854
0.277888
0.326743
0.343628
0.326887
0.278153
0.202197
0.106452
0.000289517
-0.105899
-0.201718
-0.277789
-0.326663
-0.343554
-0.326806
-0.278054
-0.202062
-0.106257
-8.4621e-17
0
0.0557241
0.106053
0.14604
0.171757
0.180678
0.171924
0.146348
0.106452
0.0561396
0.000334817
-0.0554999
-0.105899
-0.145928
-0.171667
-0.180595
-0.171834
-0.146236
-0.106298
-0.0559154
-4.44879e-17
0
-0.000100652
-0.000129057
-0.000103688
-4.13163e-05
4.26178e-05
0.000133902
0.000219796
0.000289517
0.000334817
0.000350508
0.000334817
0.000289517
0.000219796
0.000133902
4.26178e-05
-4.13163e-05
-0.000103688
-0.000129057
-0.000100652
-1.76307e-32
0
-0.0559154
-0.106298
-0.146236
-0.171834
-0.180595
-0.171667
-0.145928
-0.105899
-0.0554999
0.000334817
0.0561396
0.106452
0.146348
0.171924
0.180678
0.171757
0.14604
0.106053
0.0557241
4.44879e-17
0
-0.106257
-0.202062
-0.278054
-0.326806
-0.343554
-0.326663
-0.277789
-0.201718
-0.105899
0.000289517
0.106452
0.202197
0.278153
0.326887
0.343628
0.326743
0.277888
0.201854
0.106094
8.4621e-17
0
-0.146197
-0.278046
-0.382653
-0.449787
-0.472882
-0.44968
-0.382455
-0.277789
-0.145928
0.000219796
0.146348
0.278153
0.382734
0.449854
0.472944
0.449746
0.382536
0.277896
0.146079
1.16471e-16
0
-0.171826
-0.326813
-0.449795
-0.528739
-0.555919
-0.528676
-0.44968
-0.326663
-0.171667
0.000133902
0.171924
0.326887
0.449854
0.528789
0.555966
0.528726
0.449738
0.326736
0.171765
1.3692e-16
0
-0.180637
-0.34359
-0.472909
-0.555933
-0.584536
-0.555919
-0.472882
-0.343554
-0.180595
4.26178e-05
0.180678
0.343628
0.472944
0.555966
0.584568
0.555951
0.472917
0.343592
0.180636
1.43966e-16
0
-0.171767
-0.326737
-0.449732
-0.528709
-0.555933
-0.528739
-0.449787
-0.326806
-0.171834
-4.13163e-05
0.171757
0.326743
0.449746
0.528726
0.555951
0.528756
0.449801
0.326813
0.171825
1.3692e-16
0
-0.146086
-0.277904
-0.382537
-0.449732
-0.472909
-0.449795
-0.382653
-0.278054
-0.146236
-0.000103688
0.14604
0.277888
0.382536
0.449738
0.472917
0.449801
0.382652
0.278038
0.14619
1.16471e-16
0
-0.106112
-0.201879
-0.277904
-0.326737
-0.34359
-0.326813
-0.278046
-0.202062
-0.106298
-0.000129057
0.106053
0.201854
0.277896
0.326736
0.343592
0.326813
0.278038
0.202037
0.106239
8.4621e-17
0
-0.0557672
-0.106112
-0.146086
-0.171767
-0.180637
-0.171826
-0.146197
-0.106257
-0.0559154
-0.000100652
0.0557241
0.106094
0.146079
0.171765
0.180636
0.171825
0.14619
0.106239
0.0558724
4.44879e-17
0
-4.44879e-17
-8.4621e-17
-1.16471e-16
-1.3692e-16
-1.43966e-16
-1.3692e-16
-1.16471e-16
-8.4621e-17
-4.44879e-17
-1.76307e-32
4.44879e-17
8.4621e-17
1.16471e-16
1.3692e-16
1.43966e-16
1.3692e-16
1.16471e-16
8.4621e-17
4.44879e-17
3.52615e-32
0
0
0
0
0
0
0
0
0
0
0
0
0
0
0
0
0
0
0
0
0
0
0.0671979
0.127786
0.175851
0.206696
0.217306
0.206643
0.175752
0.127657
0.0670659
-8.99003e-05
-0.0672367
-0.127802
-0.175857
-0.206698
-0.217306
-0.206645
-0.175758
-0.127673
-0.0671047
-5.3519e-17
0
0.127786
0.243026
0.33446
0.393145
0.413342
0.393076
0.334333
0.242863
0.12762
-0.000115404
-0.127839
-0.243048
-0.334466
-0.393145
-0.41334
-0.393076
-0.33434
-0.242885
-0.127673
-1.01799e-16
0
0.175851
0.33446
0.460314
0.541102
0.568919
0.541045
0.46021
0.334326
0.175717
-9.20032e-05
-0.175892
-0.334473
-0.460314
-0.541095
-0.568911
-0.541039
-0.46021
-0.33434
-0.175758
-1.40115e-16
0
0.206696
0.393145
0.541102
0.636088
0.668809
0.636062
0.541054
0.393085
0.206638
-3.43845e-05
-0.206703
-0.393136
-0.541086
-0.63607
-0.66879
-0.636044
-0.541039
-0.393076
-0.206645
-1.64715e-16
0
0.217306
0.413342
0.568919
0.668809
0.703234
0.668824
0.568947
0.413379
0.217348
4.34532e-05
-0.217264
-0.413303
-0.568883
-0.668775
-0.703201
-0.66879
-0.568911
-0.41334
-0.217306
-1.73191e-16
0
0.206643
0.393076
0.541045
0.636062
0.668824
0.636121
0.541154
0.393218
0.206793
0.000128355
-0.206547
-0.393003
-0.540986
-0.636011
-0.668775
-0.63607
-0.541095
-0.393145
-0.206698
-1.64715e-16
0
0.175752
0.334333
0.46021
0.541054
0.568947
0.541154
0.460395
0.334573
0.176004
0.000208403
-0.175605
-0.334227
-0.460129
-0.540986
-0.568883
-0.541086
-0.460314
-0.334466
-0.175857
-1.40115e-16
0
0.127657
0.242863
0.334326
0.393085
0.413379
0.393218
0.334573
0.243182
0.127991
0.000273463
-0.127468
-0.242729
-0.334227
-0.393003
-0.413303
-0.393136
-0.334473
-0.243048
-0.127802
-1.01799e-16
0
0.0670659
0.12762
0.175717
0.206638
0.217348
0.206793
0.176004
0.127991
0.0674531
0.000315768
-0.0668495
-0.127468
-0.175605
-0.206547
-0.217264
-0.206703
-0.175892
-0.127839
-0.0672367
-5.3519e-17
0
-8.99003e-05
-0.000115404
-9.20032e-05
-3.43845e-05
4.34532e-05
0.000128355
0.000208403
0.000273463
0.000315768
0.000330426
0.000315768
0.000273463
0.000208403
0.000128355
4.34532e-05
-3.43845e-05
-9.20032e-05
-0.000115404
-8.99003e-05
-2.12098e-32
0
-0.0672367
-0.127839
-0.175892
-0.206703
-0.217264
-0.206547
-0.175605
-0.127468
-0.0668495
0.000315768
0.0674531
0.127991
0.176004
0.206793
0.217348
0.206638
0.175717
0.12762
0.0670659
5.3519e-17
0
-0.127802
-0.243048
-0.334473
-0.393136
-0.413303
-0.393003
-0.334227
-0.242729
-0.127468
0.000273463